 Gaussian 09, Revision E.01,
 Gaussian 09:  ES64L-G09RevE.01 30-Nov-2015

 --------------------------------------------------------------------
 # CCSD(T)/Gen 6D SCF=Tight SCRF=(SMD,Solvent=h2o) maxdisk=3489660928
 --------------------------------------------------------------------

 ------------
 urea.smd.h2o
 ------------
 Symbolic Z-matrix:
 Charge =  0 Multiplicity = 1

                         Standard orientation:
 ---------------------------------------------------------------------
 Center     Atomic      Atomic             Coordinates (Angstroms)
 Number     Number       Type             X           Y           Z
 ---------------------------------------------------------------------
      1          6           0       -0.000041    0.121169   -0.000870
      2          7           0        1.155376   -0.594042   -0.052404
      3          8           0        0.000016    1.366789    0.010642
      4          1           0        2.006334   -0.089213    0.161111
      5          1           0        1.147349   -1.583247    0.165958
      6          7           0       -1.155345   -0.593912   -0.052187
      7          1           0       -1.147308   -1.583683    0.163548
      8          1           0       -2.006474   -0.089507    0.161603
 ---------------------------------------------------------------------

 SCF Done:  E(RHF) =  -224.018785237     A.U. after   12 cycles
 E2 =    -0.6326019894D+00 EUMP2 =    -0.22465138722675D+03
 CCSD(T)= -0.22469193945D+03

 The electronic state is 1-A.
 Alpha  occ. eigenvalues --  -20.54311 -15.58824 -15.58820 -11.39845  -1.40048
 Alpha  occ. eigenvalues --   -1.23728  -1.17864  -0.83087  -0.74003  -0.72924
 Alpha  occ. eigenvalues --   -0.64010  -0.62223  -0.60603  -0.46529  -0.43460
 Alpha  occ. eigenvalues --   -0.42209
 Alpha virt. eigenvalues --    0.07602   0.09923   0.10368   0.11221   0.18322
 Alpha virt. eigenvalues --    0.18869   0.19943   0.20689   0.21896   0.24031
 Alpha virt. eigenvalues --    0.24698   0.29284   0.33002   0.33094   0.35649

 Mulliken charges:
               1
     1  C    0.941270
     2  N   -0.995884
     3  O   -0.856318
     4  H    0.479734
     5  H    0.473623
     6  N   -0.996085
     7  H    0.473791
     8  H    0.479869
 Sum of Mulliken charges =  -0.00000

 Dipole moment (field-independent basis, Debye):
    X=             -0.0022    Y=             -6.6519    Z=              1.8750  Tot=              6.9111
 Quadrupole moment (field-independent basis, Debye-Ang):
   XX=            -15.8572   YY=            -25.9151   ZZ=            -26.4848
   XY=              0.0042   XZ=              0.0049   YZ=             -1.7310

 DQ=-224.6732851\CCSD=-224.6723529\CCSD(T)=-224.6919394\RMSD=7.680e-09\
 Normal termination of Gaussian 09 at Mon Apr 23 17:34:56 2018.
